LAMMPS (29 Aug 2024)
# Compute elastic constant tensor for a crystal
#
# Written by Aidan Thompson (Sandia, athomps@sandia.gov)
#
#  This script uses the following three include append files.
#
#   init.mod      (must be modified for different crystal structures)
# 	       	  Define units, deformation parameters and initial
#		  configuration of the atoms and simulation cell.
#
#
#   potential.mod    (must be modified for different pair styles)
# 		     Define pair style and other attributes
#		     not stored in restart append file
#
#
#   displace.mod    (displace.mod should not need to be modified)
# 		    Perform positive and negative box displacements
# 		    in direction ${dir} and size ${up}.
# 		    It uses the resultant changes
#		    in stress to compute one
# 		    row of the elastic stiffness tensor
#
#		    Inputs variables:
#		    	   dir = the Voigt deformation component
#		    		    (1,2,3,4,5,6)
#		    Global constants:
#       	    	   up = the deformation magnitude (strain units)
#       		   cfac = conversion from LAMMPS pressure units to
#               	   output units for elastic constants
#
#
#  To run this on a different system, it should only be necessary to
#  modify the append files init.mod and potential.mod. In order to calculate
#  the elastic constants correctly, care must be taken to specify
#  the correct units in init.mod (units, cfac and cunits). It is also
#  important to verify that the minimization of energy w.r.t atom
#  positions in the deformed cell is fully converged.
#  One indication of this is that the elastic constants are insensitive
#  to the choice of the variable ${up} in init.mod. Another is to check
#  the final max and two-norm forces reported in the log append file. If you know
#  that minimization is not required, you can set maxiter = 0.0 in
#  init.mod.
#

include ${init}
include init4.mod
# NOTE: This script can be modified for different atomic structures,
# units, etc. See in.elastic for more info.
#

# Define the finite deformation size. Try several values of this
# variable to verify that results do not depend on it.
variable up equal 1.0e-6

# Define the amount of random jiggle for atoms
# This prevents atoms from staying on saddle points
variable atomjiggle equal 1.0e-5

# Uncomment one of these blocks, depending on what units
# you are using in LAMMPS and for output

# metal units, elastic constants in eV/A^3
#units		metal
#variable cfac equal 6.2414e-7
#variable cunits string eV/A^3

# metal units, elastic constants in GPa
units		metal
variable cfac equal 1.0e-4
variable cunits string GPa

# real units, elastic constants in GPa
#units		real
#variable cfac equal 1.01325e-4
#variable cunits string GPa

# Define minimization parameters
variable etol equal 0.0
variable ftol equal 1.0e-10
variable maxiter equal 100000
variable maxeval equal 100000
variable dmax equal 1.0e-2

# generate the box and atom positions using a diamond lattice
variable	a equal 3.2

boundary	p p p

lattice         bcc $a
lattice         bcc 3.2
Lattice spacing in x,y,z = 3.2 3.2 3.2
region		box prism 0 10.0 0 10.0 0 10.0 0.0 0.0 0.0
create_box	4 box
Created triclinic box = (0 0 0) to (32 32 32) with tilt (0 0 0)
  2 by 2 by 2 MPI processor grid

create_atoms	1 box
Created 2000 atoms
  using lattice units in triclinic box = (0 0 0) to (32 32 32) with tilt (0 0 0)
  create_atoms CPU = 0.000 seconds
set		type 1 type/ratio 4 ${prop} $r
set		type 1 type/ratio 4 0.90 $r
set		type 1 type/ratio 4 0.90 98421
Setting atom values ...
  1800 settings made for type/ratio
set     type 1 type/ratio 2 0.3333333333 $r
set     type 1 type/ratio 2 0.3333333333 98421
Setting atom values ...
  66 settings made for type/ratio
set     type 1 type/ratio 3 0.5 $r
set     type 1 type/ratio 3 0.5 98421
Setting atom values ...
  67 settings made for type/ratio

# Need to set mass to something, just to satisfy LAMMPS
mass		1 92.91  # Nb
mass        2 95.96  # Mo
mass        3 180.95 # Ta
mass		4 183.84 # W


include ${potential}
include potential4.mod
# NOTE: This script can be modified for different pair styles
# See in.elastic for more info.

# Choose potential
pair_style	eam/alloy
pair_coeff	* * ../NbMoTaW_Zhou04.eam.alloy Nb Mo Ta W
Reading eam/alloy potential file ../NbMoTaW_Zhou04.eam.alloy with DATE: 2018-03-30

# Setup neighbor style
neighbor 1.0 nsq
neigh_modify once no every 1 delay 0 check yes

# Setup minimization style
min_style	     cg
min_modify	     dmax ${dmax} line quadratic
min_modify	     dmax 0.01 line quadratic

# Setup output
thermo		1
thermo_style custom step temp pe press pxx pyy pzz pxy pxz pyz lx ly lz vol
thermo_modify norm no

compute		mperatom all property/atom mass
compute		matoms all reduce sum c_mperatom
variable	totalm equal c_matoms

thermo		100

# Compute initial state
fix 3 all box/relax  aniso 0.0
minimize ${etol} ${ftol} ${maxiter} ${maxeval}
minimize 0 ${ftol} ${maxiter} ${maxeval}
minimize 0 1e-10 ${maxiter} ${maxeval}
minimize 0 1e-10 100000 ${maxeval}
minimize 0 1e-10 100000 100000
Neighbor list info ...
  update: every = 1 steps, delay = 0 steps, check = yes
  max neighbors/atom: 2000, page size: 100000
  master list distance cutoff = 7.3953378
  ghost atom cutoff = 7.3953378
  1 neighbor lists, perpetual/occasional/extra = 1 0 0
  (1) pair eam/alloy, perpetual
      attributes: half, newton on
      pair build: half/nsq/newton/tri
      stencil: none
      bin: none
WARNING: Energy due to 3 extra global DOFs will be included in minimizer energies
 (../min.cpp:219)
Per MPI rank memory allocation (min/avg/max) = 4.476 | 4.476 | 4.476 Mbytes
   Step          Temp          PotEng         Press           Pxx            Pyy            Pzz            Pxy            Pxz            Pyz             Lx             Ly             Lz           Volume    
         0   0             -17246.154     -73406.037     -73405.991     -73405.468     -73406.653      0.31534992    -1.8066049     -18.167345      32             32             32             32768        
       100   0             -17266.324     -200.3995      -284.13505     -310.98561     -6.0778272     -0.57387122    -0.52450118    -18.04962       31.72297       31.723266      31.719973      31921.592    
       200   0             -17267.353      342.81691      308.76746      298.31753      421.36573      1.3965483      1.7531094     -19.332861      31.720923      31.721063      31.71968       31917.02     
       300   0             -17267.963      444.52369      477.42476      487.55632      368.58998      3.2954086      3.4852259     -20.323677      31.720175      31.720106      31.721287      31916.922    
       400   0             -17268.147      417.32886      456.59397      469.69424      325.69838      4.0133436      4.0760282     -20.670494      31.720317      31.720221      31.721663      31917.559    
       500   0             -17268.557     -796.12785     -825.36415     -834.08289     -728.93651      5.9361977      5.524107      -21.544506      31.725646      31.725791      31.724561      31931.444    
       600   0             -17268.875      59.647698      147.50411      175.71505     -144.27606      7.7339185      6.8313466     -22.33996       31.721615      31.721373      31.724672      31923.052    
       700   0             -17269.173      354.92719      347.74545      345.4266       371.60953      9.8036629      8.2058269     -23.222604      31.721864      31.721952      31.721551      31920.745    
       800   0             -17270.407     -236.38473     -323.09227     -309.59922     -76.462698      28.472659      17.179007     -31.465286      31.727098      31.727023      31.724465      31934.048    
       900   0             -17270.491      0.89287483     1.3523981     -10.794401      12.120627      33.525806      15.875926     -39.783103      31.725827      31.725959      31.725794      31933.036    
      1000   0             -17270.491      0.20892415     0.184276       0.29441196     0.14808449     33.608257      15.888229     -39.871422      31.725833      31.725835      31.725915      31933.038    
      1100   0             -17270.491     -0.00025620265 -0.00043820028  0.00019634959 -0.00052675727  33.614889      15.882602     -39.880545      31.725833      31.725837      31.725915      31933.041    
      1200   0             -17270.491     -6.5344662e-08  7.0941855e-06 -2.7867156e-05  2.0576936e-05  33.614848      15.882661     -39.880535      31.725833      31.725837      31.725915      31933.041    
      1300   0             -17270.491      3.9548453e-06  3.9401019e-06  5.4643459e-06  2.4600881e-06  33.614845      15.882658     -39.880544      31.725833      31.725837      31.725915      31933.041    
      1400   0             -17270.491     -2.9431265e-07 -3.1803848e-07  1.2867961e-07 -6.9357908e-07  33.614845      15.882658     -39.880544      31.725833      31.725837      31.725915      31933.041    
      1452   0             -17270.491      1.6684229e-10  1.5571947e-09 -4.4206077e-11 -1.0124618e-09  33.614845      15.882658     -39.880544      31.725833      31.725837      31.725915      31933.041    
Loop time of 1.26076 on 8 procs for 1452 steps with 2000 atoms

95.7% CPU use with 8 MPI tasks x no OpenMP threads

Minimization stats:
  Stopping criterion = force tolerance
  Energy initial, next-to-last, final = 
     -17246.1541976211  -17270.4914914204  -17270.4914914204
  Force two-norm initial, final = 2600.3782 8.0724999e-11
  Force max component initial, final = 1501.326 3.1304716e-11
  Final line search alpha, max atom move = 1 3.1304716e-11
  Iterations, force evaluations = 1452 2259

MPI task timing breakdown:
Section |  min time  |  avg time  |  max time  |%varavg| %total
---------------------------------------------------------------
Pair    | 1.0651     | 1.068      | 1.0708     |   0.2 | 84.71
Neigh   | 0          | 0          | 0          |   0.0 |  0.00
Comm    | 0.1037     | 0.10633    | 0.109      |   0.6 |  8.43
Output  | 0.00023037 | 0.00025073 | 0.00031518 |   0.0 |  0.02
Modify  | 0          | 0          | 0          |   0.0 |  0.00
Other   |            | 0.08623    |            |       |  6.84

Nlocal:            250 ave         250 max         250 min
Histogram: 8 0 0 0 0 0 0 0 0 0
Nghost:           1479 ave        1479 max        1479 min
Histogram: 8 0 0 0 0 0 0 0 0 0
Neighs:          14000 ave       14211 max       13789 min
Histogram: 2 0 2 0 0 0 0 2 0 2

Total # of neighbors = 112000
Ave neighs/atom = 56
Neighbor list builds = 0
Dangerous builds = 0
write_data	${prop}.data
write_data	0.90.data
System init for write_data ...

# variable	totalv0 equal lx*ly*lz
# variable	totalv equal ${totalv0}
# variable	density equal ${totalm}/${totalv}

# print		" Volume = ${totalv}"
# print		" Density = ${density}"

thermo		100
thermo_style	custom step time etotal press pxx pyy pzz pxy pyz pxz lx ly lz v_totalm
WARNING: New thermo_style command, previous thermo_modify settings will be lost (../output.cpp:904)
run		0
WARNING: No fixes with time integration, atoms won't move (../verlet.cpp:60)
Per MPI rank memory allocation (min/avg/max) = 3.351 | 3.351 | 3.351 Mbytes
   Step          Time          TotEng         Press           Pxx            Pyy            Pzz            Pxy            Pyz            Pxz             Lx             Ly             Lz          v_totalm   
      1452   0             -17270.491      9.6255167e-11  1.5571947e-09 -1.9678834e-10 -1.0716409e-09  33.614845     -39.880544      15.882658      31.725833      31.725837      31.725915      355592.39    
Loop time of 2.035e-06 on 8 procs for 0 steps with 2000 atoms

98.3% CPU use with 8 MPI tasks x no OpenMP threads

MPI task timing breakdown:
Section |  min time  |  avg time  |  max time  |%varavg| %total
---------------------------------------------------------------
Pair    | 0          | 0          | 0          |   0.0 |  0.00
Neigh   | 0          | 0          | 0          |   0.0 |  0.00
Comm    | 0          | 0          | 0          |   0.0 |  0.00
Output  | 0          | 0          | 0          |   0.0 |  0.00
Modify  | 0          | 0          | 0          |   0.0 |  0.00
Other   |            | 2.035e-06  |            |       |100.00

Nlocal:            250 ave         272 max         222 min
Histogram: 1 0 1 1 0 0 2 1 1 1
Nghost:           1479 ave        1507 max        1457 min
Histogram: 1 1 1 1 1 0 1 1 0 1
Neighs:          14000 ave       15421 max       12345 min
Histogram: 1 0 1 1 0 2 0 1 1 1

Total # of neighbors = 112000
Ave neighs/atom = 56
Neighbor list builds = 0
Dangerous builds = 0

variable tmp equal pxx
variable pxx0 equal ${tmp}
variable pxx0 equal 1.55719470242397e-09
variable tmp equal pyy
variable pyy0 equal ${tmp}
variable pyy0 equal -1.96788341515118e-10
variable tmp equal pzz
variable pzz0 equal ${tmp}
variable pzz0 equal -1.07164085977254e-09
variable tmp equal pyz
variable pyz0 equal ${tmp}
variable pyz0 equal -39.8805436731508
variable tmp equal pxz
variable pxz0 equal ${tmp}
variable pxz0 equal 15.8826584694563
variable tmp equal pxy
variable pxy0 equal ${tmp}
variable pxy0 equal 33.6148446063858

variable tmp equal lx
variable lx0 equal ${tmp}
variable lx0 equal 31.7258333898295
variable tmp equal ly
variable ly0 equal ${tmp}
variable ly0 equal 31.7258365834915
variable tmp equal lz
variable lz0 equal ${tmp}
variable lz0 equal 31.7259146282816

# These formulas define the derivatives w.r.t. strain components
# Constants uses $, variables use v_
variable d1 equal -(v_pxx1-${pxx0})/(v_delta/v_len0)*${cfac}
variable d1 equal -(v_pxx1-1.55719470242397e-09)/(v_delta/v_len0)*${cfac}
variable d1 equal -(v_pxx1-1.55719470242397e-09)/(v_delta/v_len0)*0.0001
variable d2 equal -(v_pyy1-${pyy0})/(v_delta/v_len0)*${cfac}
variable d2 equal -(v_pyy1--1.96788341515118e-10)/(v_delta/v_len0)*${cfac}
variable d2 equal -(v_pyy1--1.96788341515118e-10)/(v_delta/v_len0)*0.0001
variable d3 equal -(v_pzz1-${pzz0})/(v_delta/v_len0)*${cfac}
variable d3 equal -(v_pzz1--1.07164085977254e-09)/(v_delta/v_len0)*${cfac}
variable d3 equal -(v_pzz1--1.07164085977254e-09)/(v_delta/v_len0)*0.0001
variable d4 equal -(v_pyz1-${pyz0})/(v_delta/v_len0)*${cfac}
variable d4 equal -(v_pyz1--39.8805436731508)/(v_delta/v_len0)*${cfac}
variable d4 equal -(v_pyz1--39.8805436731508)/(v_delta/v_len0)*0.0001
variable d5 equal -(v_pxz1-${pxz0})/(v_delta/v_len0)*${cfac}
variable d5 equal -(v_pxz1-15.8826584694563)/(v_delta/v_len0)*${cfac}
variable d5 equal -(v_pxz1-15.8826584694563)/(v_delta/v_len0)*0.0001
variable d6 equal -(v_pxy1-${pxy0})/(v_delta/v_len0)*${cfac}
variable d6 equal -(v_pxy1-33.6148446063858)/(v_delta/v_len0)*${cfac}
variable d6 equal -(v_pxy1-33.6148446063858)/(v_delta/v_len0)*0.0001

displace_atoms all random ${atomjiggle} ${atomjiggle} ${atomjiggle} 87287 units box
displace_atoms all random 1e-05 ${atomjiggle} ${atomjiggle} 87287 units box
displace_atoms all random 1e-05 1e-05 ${atomjiggle} 87287 units box
displace_atoms all random 1e-05 1e-05 1e-05 87287 units box
Displacing atoms ...

# Write restart
unfix 3
write_restart restart.equil
System init for write_restart ...

# uxx Perturbation

variable dir equal 1
include displace.mod
# NOTE: This script should not need to be
# modified. See in.elastic for more info.
#
# Find which reference length to use

if "${dir} == 1" then    "variable len0 equal ${lx0}"
variable len0 equal ${lx0}
variable len0 equal 31.7258333898295
if "${dir} == 2" then    "variable len0 equal ${ly0}"
if "${dir} == 3" then    "variable len0 equal ${lz0}"
if "${dir} == 4" then    "variable len0 equal ${lz0}"
if "${dir} == 5" then    "variable len0 equal ${lz0}"
if "${dir} == 6" then    "variable len0 equal ${ly0}"

# Reset box and simulation parameters

clear
box tilt large

The 'box' command has been removed and will be ignored

read_restart restart.equil
Reading restart file ...
  restart file = 29 Aug 2024, LAMMPS = 29 Aug 2024
  restoring atom style atomic from restart
  triclinic box = (0.13708331 0.13708171 0.13704269) to (31.862917 31.862918 31.862957) with tilt (0 0 0)
  2 by 2 by 2 MPI processor grid
  pair style eam/alloy stores no restart info
  2000 atoms
  read_restart CPU = 0.001 seconds
include ${potential}
include potential4.mod
# NOTE: This script can be modified for different pair styles
# See in.elastic for more info.

# Choose potential
pair_style	eam/alloy
pair_coeff	* * ../NbMoTaW_Zhou04.eam.alloy Nb Mo Ta W
Reading eam/alloy potential file ../NbMoTaW_Zhou04.eam.alloy with DATE: 2018-03-30

# Setup neighbor style
neighbor 1.0 nsq
neigh_modify once no every 1 delay 0 check yes

# Setup minimization style
min_style	     cg
min_modify	     dmax ${dmax} line quadratic
min_modify	     dmax 0.01 line quadratic

# Setup output
thermo		1
thermo_style custom step temp pe press pxx pyy pzz pxy pxz pyz lx ly lz vol
thermo_modify norm no

# Negative deformation

variable delta equal -${up}*${len0}
variable delta equal -1e-06*${len0}
variable delta equal -1e-06*31.7258333898295
variable deltaxy equal -${up}*xy
variable deltaxy equal -1e-06*xy
variable deltaxz equal -${up}*xz
variable deltaxz equal -1e-06*xz
variable deltayz equal -${up}*yz
variable deltayz equal -1e-06*yz
if "${dir} == 1" then    "change_box all x delta 0 ${delta} xy delta ${deltaxy} xz delta ${deltaxz} remap units box"
change_box all x delta 0 ${delta} xy delta ${deltaxy} xz delta ${deltaxz} remap units box
change_box all x delta 0 -3.17258333898295e-05 xy delta ${deltaxy} xz delta ${deltaxz} remap units box
change_box all x delta 0 -3.17258333898295e-05 xy delta 0 xz delta ${deltaxz} remap units box
change_box all x delta 0 -3.17258333898295e-05 xy delta 0 xz delta 0 remap units box
Changing box ...
  triclinic box = (0.13708331 0.13708171 0.13704269) to (31.862885 31.862918 31.862957) with tilt (0 0 0)
  triclinic box = (0.13708331 0.13708171 0.13704269) to (31.862885 31.862918 31.862957) with tilt (0 0 0)
  triclinic box = (0.13708331 0.13708171 0.13704269) to (31.862885 31.862918 31.862957) with tilt (0 0 0)
if "${dir} == 2" then    "change_box all y delta 0 ${delta} yz delta ${deltayz} remap units box"
if "${dir} == 3" then    "change_box all z delta 0 ${delta} remap units box"
if "${dir} == 4" then    "change_box all yz delta ${delta} remap units box"
if "${dir} == 5" then    "change_box all xz delta ${delta} remap units box"
if "${dir} == 6" then    "change_box all xy delta ${delta} remap units box"

# Relax atoms positions

minimize ${etol} ${ftol} ${maxiter} ${maxeval}
minimize 0 ${ftol} ${maxiter} ${maxeval}
minimize 0 1e-10 ${maxiter} ${maxeval}
minimize 0 1e-10 100000 ${maxeval}
minimize 0 1e-10 100000 100000
Neighbor list info ...
  update: every = 1 steps, delay = 0 steps, check = yes
  max neighbors/atom: 2000, page size: 100000
  master list distance cutoff = 7.3953378
  ghost atom cutoff = 7.3953378
  1 neighbor lists, perpetual/occasional/extra = 1 0 0
  (1) pair eam/alloy, perpetual
      attributes: half, newton on
      pair build: half/nsq/newton/tri
      stencil: none
      bin: none
Per MPI rank memory allocation (min/avg/max) = 4.47 | 4.47 | 4.47 Mbytes
   Step          Temp          PotEng         Press           Pxx            Pyy            Pzz            Pxy            Pxz            Pyz             Lx             Ly             Lz           Volume    
      1452   0             -17270.491      2.9873762      4.9794481      1.9997787      1.9829019      33.60991       15.888785     -39.896429      31.725802      31.725837      31.725915      31933.009    
      1453   0             -17270.491      2.9721132      4.9507426      1.9817193      1.9838779      33.610013      15.888758     -39.879672      31.725802      31.725837      31.725915      31933.009    
      1454   0             -17270.491      2.9710966      4.9482701      1.9795939      1.9854258      33.612472      15.8832       -39.881896      31.725802      31.725837      31.725915      31933.009    
      1455   0             -17270.491      2.969202       4.9451665      1.9789767      1.9834629      33.612395      15.881167     -39.881061      31.725802      31.725837      31.725915      31933.009    
      1456   0             -17270.491      2.968781       4.9434018      1.9803689      1.9825722      33.612633      15.880888     -39.880088      31.725802      31.725837      31.725915      31933.009    
      1457   0             -17270.491      2.9691577      4.9430283      1.9817313      1.9827136      33.613195      15.881735     -39.880382      31.725802      31.725837      31.725915      31933.009    
      1458   0             -17270.491      2.9692556      4.9431723      1.9821079      1.9824867      33.613876      15.88248      -39.880309      31.725802      31.725837      31.725915      31933.009    
      1459   0             -17270.491      2.9691695      4.9430989      1.9821482      1.9822615      33.614436      15.882698     -39.880321      31.725802      31.725837      31.725915      31933.009    
      1460   0             -17270.491      2.9692364      4.9431147      1.9822625      1.9823319      33.614736      15.882752     -39.880433      31.725802      31.725837      31.725915      31933.009    
      1461   0             -17270.491      2.9693575      4.9433084      1.9824         1.9823642      33.614786      15.882864     -39.880496      31.725802      31.725837      31.725915      31933.009    
      1462   0             -17270.491      2.969388       4.9434565      1.982421       1.9822864      33.614723      15.882715     -39.880527      31.725802      31.725837      31.725915      31933.009    
      1463   0             -17270.491      2.9692892      4.9434223      1.982234       1.9822114      33.614568      15.882578     -39.880587      31.725802      31.725837      31.725915      31933.009    
      1464   0             -17270.491      2.9692853      4.943398       1.9822558      1.9822021      33.614483      15.882511     -39.880625      31.725802      31.725837      31.725915      31933.009    
      1465   0             -17270.491      2.9693274      4.9433963      1.9823683      1.9822176      33.61446       15.882407     -39.880596      31.725802      31.725837      31.725915      31933.009    
      1466   0             -17270.491      2.9693366      4.9433805      1.9824146      1.9822146      33.614425      15.882393     -39.880603      31.725802      31.725837      31.725915      31933.009    
      1467   0             -17270.491      2.969332       4.9433325      1.9824398      1.9822236      33.614457      15.882403     -39.880615      31.725802      31.725837      31.725915      31933.009    
      1468   0             -17270.491      2.9693231      4.9433033      1.9824603      1.9822057      33.614511      15.882444     -39.880611      31.725802      31.725837      31.725915      31933.009    
      1469   0             -17270.491      2.9693254      4.9433001      1.9824807      1.9821955      33.61455       15.882475     -39.880583      31.725802      31.725837      31.725915      31933.009    
      1470   0             -17270.491      2.96932        4.9432932      1.9824925      1.9821744      33.61457       15.882492     -39.880562      31.725802      31.725837      31.725915      31933.009    
      1471   0             -17270.491      2.969313       4.9432974      1.9824885      1.9821531      33.614588      15.882513     -39.88055       31.725802      31.725837      31.725915      31933.009    
      1472   0             -17270.491      2.9693264      4.9433318      1.9824856      1.9821619      33.614595      15.882515     -39.880545      31.725802      31.725837      31.725915      31933.009    
      1473   0             -17270.491      2.9693269      4.9433478      1.9824793      1.9821536      33.614591      15.882516     -39.880551      31.725802      31.725837      31.725915      31933.009    
      1474   0             -17270.491      2.969327       4.943345       1.9824794      1.9821567      33.61459       15.882518     -39.88056       31.725802      31.725837      31.725915      31933.009    
      1475   0             -17270.491      2.9693255      4.9433386      1.9824742      1.9821637      33.614591      15.882528     -39.880567      31.725802      31.725837      31.725915      31933.009    
      1476   0             -17270.491      2.9693215      4.9433311      1.9824664      1.982167       33.614588      15.882533     -39.880568      31.725802      31.725837      31.725915      31933.009    
      1477   0             -17270.491      2.969321       4.9433321      1.9824617      1.9821692      33.614582      15.882533     -39.880569      31.725802      31.725837      31.725915      31933.009    
      1478   0             -17270.491      2.969323       4.9433342      1.982462       1.9821729      33.61458       15.882537     -39.88057       31.725802      31.725837      31.725915      31933.009    
      1479   0             -17270.491      2.9693249      4.9433345      1.9824629      1.9821773      33.61458       15.882538     -39.880569      31.725802      31.725837      31.725915      31933.009    
      1480   0             -17270.491      2.9693247      4.9433335      1.9824623      1.9821782      33.61458       15.882538     -39.880568      31.725802      31.725837      31.725915      31933.009    
      1481   0             -17270.491      2.9693246      4.9433329      1.9824623      1.9821786      33.61458       15.882539     -39.880568      31.725802      31.725837      31.725915      31933.009    
      1482   0             -17270.491      2.9693248      4.9433333      1.982462       1.982179       33.61458       15.882539     -39.880568      31.725802      31.725837      31.725915      31933.009    
      1483   0             -17270.491      2.9693246      4.9433334      1.9824613      1.9821791      33.61458       15.882539     -39.880568      31.725802      31.725837      31.725915      31933.009    
      1484   0             -17270.491      2.9693245      4.9433332      1.9824612      1.9821792      33.61458       15.882539     -39.880568      31.725802      31.725837      31.725915      31933.009    
      1485   0             -17270.491      2.9693245      4.9433331      1.9824611      1.9821794      33.61458       15.882539     -39.880568      31.725802      31.725837      31.725915      31933.009    
      1486   0             -17270.491      2.9693245      4.943333       1.982461       1.9821795      33.61458       15.882539     -39.880568      31.725802      31.725837      31.725915      31933.009    
      1487   0             -17270.491      2.9693245      4.943333       1.9824609      1.9821795      33.61458       15.882539     -39.880568      31.725802      31.725837      31.725915      31933.009    
      1488   0             -17270.491      2.9693245      4.943333       1.982461       1.9821795      33.61458       15.882539     -39.880568      31.725802      31.725837      31.725915      31933.009    
      1489   0             -17270.491      2.9693245      4.9433331      1.982461       1.9821795      33.61458       15.882539     -39.880568      31.725802      31.725837      31.725915      31933.009    
      1490   0             -17270.491      2.9693245      4.9433332      1.982461       1.9821794      33.61458       15.882539     -39.880568      31.725802      31.725837      31.725915      31933.009    
      1491   0             -17270.491      2.9693245      4.9433332      1.982461       1.9821793      33.61458       15.882539     -39.880568      31.725802      31.725837      31.725915      31933.009    
      1492   0             -17270.491      2.9693245      4.9433332      1.982461       1.9821792      33.61458       15.882539     -39.880568      31.725802      31.725837      31.725915      31933.009    
      1493   0             -17270.491      2.9693245      4.9433332      1.9824611      1.9821792      33.61458       15.882539     -39.880568      31.725802      31.725837      31.725915      31933.009    
      1494   0             -17270.491      2.9693245      4.9433332      1.9824611      1.9821792      33.61458       15.882539     -39.880568      31.725802      31.725837      31.725915      31933.009    
      1495   0             -17270.491      2.9693245      4.9433332      1.9824611      1.9821792      33.61458       15.882539     -39.880568      31.725802      31.725837      31.725915      31933.009    
      1496   0             -17270.491      2.9693245      4.9433332      1.9824611      1.9821792      33.61458       15.882539     -39.880568      31.725802      31.725837      31.725915      31933.009    
      1497   0             -17270.491      2.9693245      4.9433332      1.9824611      1.9821792      33.61458       15.882539     -39.880568      31.725802      31.725837      31.725915      31933.009    
      1498   0             -17270.491      2.9693245      4.9433332      1.9824611      1.9821793      33.61458       15.882539     -39.880568      31.725802      31.725837      31.725915      31933.009    
      1499   0             -17270.491      2.9693245      4.9433332      1.9824611      1.9821793      33.61458       15.882539     -39.880568      31.725802      31.725837      31.725915      31933.009    
      1500   0             -17270.491      2.9693245      4.9433332      1.982461       1.9821793      33.61458       15.882539     -39.880568      31.725802      31.725837      31.725915      31933.009    
      1501   0             -17270.491      2.9693245      4.9433332      1.982461       1.9821793      33.61458       15.882539     -39.880568      31.725802      31.725837      31.725915      31933.009    
      1502   0             -17270.491      2.9693245      4.9433332      1.982461       1.9821793      33.61458       15.882539     -39.880568      31.725802      31.725837      31.725915      31933.009    
      1503   0             -17270.491      2.9693245      4.9433332      1.982461       1.9821793      33.61458       15.882539     -39.880568      31.725802      31.725837      31.725915      31933.009    
      1504   0             -17270.491      2.9693245      4.9433332      1.9824611      1.9821793      33.61458       15.882539     -39.880568      31.725802      31.725837      31.725915      31933.009    
      1505   0             -17270.491      2.9693245      4.9433332      1.9824611      1.9821793      33.61458       15.882539     -39.880568      31.725802      31.725837      31.725915      31933.009    
      1506   0             -17270.491      2.9693245      4.9433332      1.9824611      1.9821793      33.61458       15.882539     -39.880568      31.725802      31.725837      31.725915      31933.009    
Loop time of 0.0566009 on 8 procs for 54 steps with 2000 atoms

95.5% CPU use with 8 MPI tasks x no OpenMP threads

Minimization stats:
  Stopping criterion = force tolerance
  Energy initial, next-to-last, final = 
     -17270.4914895813  -17270.4914913711  -17270.4914913711
  Force two-norm initial, final = 0.0088878928 9.3768099e-11
  Force max component initial, final = 0.00031603715 4.6467485e-12
  Final line search alpha, max atom move = 1 4.6467485e-12
  Iterations, force evaluations = 54 108

MPI task timing breakdown:
Section |  min time  |  avg time  |  max time  |%varavg| %total
---------------------------------------------------------------
Pair    | 0.049231   | 0.049272   | 0.049306   |   0.0 | 87.05
Neigh   | 0          | 0          | 0          |   0.0 |  0.00
Comm    | 0.0048826  | 0.0049183  | 0.0049705  |   0.0 |  8.69
Output  | 0.00075483 | 0.00080137 | 0.0010902  |   0.0 |  1.42
Modify  | 0          | 0          | 0          |   0.0 |  0.00
Other   |            | 0.00161    |            |       |  2.84

Nlocal:            250 ave         272 max         222 min
Histogram: 1 0 1 1 0 0 2 1 1 1
Nghost:           1479 ave        1507 max        1457 min
Histogram: 1 1 1 1 1 0 1 1 0 1
Neighs:          14000 ave       15421 max       12345 min
Histogram: 1 0 1 1 0 2 0 1 1 1

Total # of neighbors = 112000
Ave neighs/atom = 56
Neighbor list builds = 0
Dangerous builds = 0

# Obtain new stress tensor

variable tmp equal pxx
variable pxx1 equal ${tmp}
variable pxx1 equal 4.94333317766768
variable tmp equal pyy
variable pyy1 equal ${tmp}
variable pyy1 equal 1.98246105046908
variable tmp equal pzz
variable pzz1 equal ${tmp}
variable pzz1 equal 1.98217927659733
variable tmp equal pxy
variable pxy1 equal ${tmp}
variable pxy1 equal 33.614580318218
variable tmp equal pxz
variable pxz1 equal ${tmp}
variable pxz1 equal 15.8825387180399
variable tmp equal pyz
variable pyz1 equal ${tmp}
variable pyz1 equal -39.8805684247919

# Compute elastic constant from pressure tensor

variable C1neg equal ${d1}
variable C1neg equal 494.333317611048
variable C2neg equal ${d2}
variable C2neg equal 198.246105066587
variable C3neg equal ${d3}
variable C3neg equal 198.217927766897
variable C4neg equal ${d4}
variable C4neg equal -0.00247516411064907
variable C5neg equal ${d5}
variable C5neg equal -0.011975141640086
variable C6neg equal ${d6}
variable C6neg equal -0.0264288167798554

# Reset box and simulation parameters

clear
box tilt large

The 'box' command has been removed and will be ignored

read_restart restart.equil
Reading restart file ...
  restart file = 29 Aug 2024, LAMMPS = 29 Aug 2024
  restoring atom style atomic from restart
  triclinic box = (0.13708331 0.13708171 0.13704269) to (31.862917 31.862918 31.862957) with tilt (0 0 0)
  2 by 2 by 2 MPI processor grid
  pair style eam/alloy stores no restart info
  2000 atoms
  read_restart CPU = 0.000 seconds
include ${potential}
include potential4.mod
# NOTE: This script can be modified for different pair styles
# See in.elastic for more info.

# Choose potential
pair_style	eam/alloy
pair_coeff	* * ../NbMoTaW_Zhou04.eam.alloy Nb Mo Ta W
Reading eam/alloy potential file ../NbMoTaW_Zhou04.eam.alloy with DATE: 2018-03-30

# Setup neighbor style
neighbor 1.0 nsq
neigh_modify once no every 1 delay 0 check yes

# Setup minimization style
min_style	     cg
min_modify	     dmax ${dmax} line quadratic
min_modify	     dmax 0.01 line quadratic

# Setup output
thermo		1
thermo_style custom step temp pe press pxx pyy pzz pxy pxz pyz lx ly lz vol
thermo_modify norm no

# Positive deformation

variable delta equal ${up}*${len0}
variable delta equal 1e-06*${len0}
variable delta equal 1e-06*31.7258333898295
variable deltaxy equal ${up}*xy
variable deltaxy equal 1e-06*xy
variable deltaxz equal ${up}*xz
variable deltaxz equal 1e-06*xz
variable deltayz equal ${up}*yz
variable deltayz equal 1e-06*yz
if "${dir} == 1" then    "change_box all x delta 0 ${delta} xy delta ${deltaxy} xz delta ${deltaxz} remap units box"
change_box all x delta 0 ${delta} xy delta ${deltaxy} xz delta ${deltaxz} remap units box
change_box all x delta 0 3.17258333898295e-05 xy delta ${deltaxy} xz delta ${deltaxz} remap units box
change_box all x delta 0 3.17258333898295e-05 xy delta 0 xz delta ${deltaxz} remap units box
change_box all x delta 0 3.17258333898295e-05 xy delta 0 xz delta 0 remap units box
Changing box ...
  triclinic box = (0.13708331 0.13708171 0.13704269) to (31.862948 31.862918 31.862957) with tilt (0 0 0)
  triclinic box = (0.13708331 0.13708171 0.13704269) to (31.862948 31.862918 31.862957) with tilt (0 0 0)
  triclinic box = (0.13708331 0.13708171 0.13704269) to (31.862948 31.862918 31.862957) with tilt (0 0 0)
if "${dir} == 2" then    "change_box all y delta 0 ${delta} yz delta ${deltayz} remap units box"
if "${dir} == 3" then    "change_box all z delta 0 ${delta} remap units box"
if "${dir} == 4" then    "change_box all yz delta ${delta} remap units box"
if "${dir} == 5" then    "change_box all xz delta ${delta} remap units box"
if "${dir} == 6" then    "change_box all xy delta ${delta} remap units box"

# Relax atoms positions

minimize ${etol} ${ftol} ${maxiter} ${maxeval}
minimize 0 ${ftol} ${maxiter} ${maxeval}
minimize 0 1e-10 ${maxiter} ${maxeval}
minimize 0 1e-10 100000 ${maxeval}
minimize 0 1e-10 100000 100000
Neighbor list info ...
  update: every = 1 steps, delay = 0 steps, check = yes
  max neighbors/atom: 2000, page size: 100000
  master list distance cutoff = 7.3953378
  ghost atom cutoff = 7.3953378
  1 neighbor lists, perpetual/occasional/extra = 1 0 0
  (1) pair eam/alloy, perpetual
      attributes: half, newton on
      pair build: half/nsq/newton/tri
      stencil: none
      bin: none
Per MPI rank memory allocation (min/avg/max) = 4.47 | 4.47 | 4.47 Mbytes
   Step          Temp          PotEng         Press           Pxx            Pyy            Pzz            Pxy            Pxz            Pyz             Lx             Ly             Lz           Volume    
      1452   0             -17270.491     -2.9677016     -4.9399659     -1.9730476     -1.9900914      33.609835      15.888692     -39.896247      31.725865      31.725837      31.725915      31933.073    
      1453   0             -17270.491     -2.9733006     -4.9520566     -1.9849299     -1.9829152      33.610281      15.888902     -39.87954       31.725865      31.725837      31.725915      31933.073    
      1454   0             -17270.491     -2.9692784     -4.9452852     -1.9842007     -1.9783492      33.612893      15.883431     -39.881807      31.725865      31.725837      31.725915      31933.073    
      1455   0             -17270.491     -2.9699343     -4.9453393     -1.9845348     -1.9799289      33.612865      15.881396     -39.881007      31.725865      31.725837      31.725915      31933.073    
      1456   0             -17270.491     -2.9699429     -4.9454566     -1.9833875     -1.9809846      33.613133      15.881131     -39.880063      31.725865      31.725837      31.725915      31933.073    
      1457   0             -17270.491     -2.9694902     -4.9448893     -1.982431      -1.9811504      33.613711      15.881982     -39.880377      31.725865      31.725837      31.725915      31933.073    
      1458   0             -17270.491     -2.9694127     -4.9442142     -1.9823953     -1.9816288      33.614402      15.882715     -39.880313      31.725865      31.725837      31.725915      31933.073    
      1459   0             -17270.491     -2.9694987     -4.943972      -1.9825456     -1.9819787      33.614965      15.882928     -39.880323      31.725865      31.725837      31.725915      31933.073    
      1460   0             -17270.491     -2.9694098     -4.9437644     -1.9825187     -1.9819463      33.615263      15.882987     -39.880423      31.725865      31.725837      31.725915      31933.073    
      1461   0             -17270.491     -2.9692686     -4.9434558     -1.9824257     -1.9819243      33.615309      15.883106     -39.880469      31.725865      31.725837      31.725915      31933.073    
      1462   0             -17270.491     -2.9692301     -4.9432359     -1.9824389     -1.9820155      33.615243      15.88296      -39.880484      31.725865      31.725837      31.725915      31933.073    
      1463   0             -17270.491     -2.9693332     -4.9432286     -1.9826585     -1.9821125      33.615088      15.882824     -39.880533      31.725865      31.725837      31.725915      31933.073    
      1464   0             -17270.491     -2.9693458     -4.9432307     -1.9826639     -1.982143       33.615005      15.882754     -39.880566      31.725865      31.725837      31.725915      31933.073    
      1465   0             -17270.491     -2.9693088     -4.94322       -1.9825665     -1.98214        33.614986      15.882643     -39.880536      31.725865      31.725837      31.725915      31933.073    
      1466   0             -17270.491     -2.969298      -4.943229      -1.9825207     -1.9821443      33.614955      15.882625     -39.880544      31.725865      31.725837      31.725915      31933.073    
      1467   0             -17270.491     -2.9692993     -4.9432757     -1.9824894     -1.9821328      33.614989      15.882633     -39.880558      31.725865      31.725837      31.725915      31933.073    
      1468   0             -17270.491     -2.9693071     -4.9433092     -1.9824624     -1.9821497      33.615043      15.882675     -39.880555      31.725865      31.725837      31.725915      31933.073    
      1469   0             -17270.491     -2.969305      -4.9433198     -1.982436      -1.9821591      33.615082      15.88271      -39.880529      31.725865      31.725837      31.725915      31933.073    
      1470   0             -17270.491     -2.9693111     -4.9433342     -1.9824201     -1.9821789      33.6151        15.88273      -39.880511      31.725865      31.725837      31.725915      31933.073    
      1471   0             -17270.491     -2.9693193     -4.9433366     -1.9824227     -1.9821986      33.615117      15.882753     -39.880501      31.725865      31.725837      31.725915      31933.073    
      1472   0             -17270.491     -2.9693066     -4.9433071     -1.9824256     -1.9821871      33.615123      15.882756     -39.880497      31.725865      31.725837      31.725915      31933.073    
      1473   0             -17270.491     -2.969306      -4.9432944     -1.9824312     -1.9821923      33.615118      15.882757     -39.880504      31.725865      31.725837      31.725915      31933.073    
      1474   0             -17270.491     -2.9693056     -4.9432995     -1.9824302     -1.9821871      33.615117      15.882758     -39.880512      31.725865      31.725837      31.725915      31933.073    
      1475   0             -17270.491     -2.9693072     -4.9433074     -1.9824347     -1.9821793      33.615119      15.882768     -39.880519      31.725865      31.725837      31.725915      31933.073    
      1476   0             -17270.491     -2.9693111     -4.9433151     -1.982442      -1.9821761      33.615115      15.882773     -39.88052       31.725865      31.725837      31.725915      31933.073    
      1477   0             -17270.491     -2.9693115     -4.9433134     -1.9824464     -1.9821746      33.61511       15.882774     -39.880521      31.725865      31.725837      31.725915      31933.073    
      1478   0             -17270.491     -2.9693094     -4.9433102     -1.9824463     -1.9821716      33.615108      15.882777     -39.880521      31.725865      31.725837      31.725915      31933.073    
      1479   0             -17270.491     -2.9693075     -4.9433089     -1.9824456     -1.9821679      33.615108      15.882778     -39.88052       31.725865      31.725837      31.725915      31933.073    
      1480   0             -17270.491     -2.9693077     -4.9433091     -1.9824466     -1.9821673      33.615108      15.882778     -39.880519      31.725865      31.725837      31.725915      31933.073    
      1481   0             -17270.491     -2.9693076     -4.9433091     -1.9824467     -1.9821671      33.615108      15.882778     -39.880518      31.725865      31.725837      31.725915      31933.073    
      1482   0             -17270.491     -2.9693074     -4.9433084     -1.9824471     -1.9821666      33.615109      15.882779     -39.880519      31.725865      31.725837      31.725915      31933.073    
      1483   0             -17270.491     -2.9693075     -4.9433082     -1.9824478     -1.9821666      33.615109      15.882779     -39.880519      31.725865      31.725837      31.725915      31933.073    
      1484   0             -17270.491     -2.9693076     -4.9433083     -1.9824481     -1.9821665      33.615109      15.882779     -39.880519      31.725865      31.725837      31.725915      31933.073    
      1485   0             -17270.491     -2.9693076     -4.9433084     -1.9824482     -1.9821664      33.615109      15.882778     -39.880519      31.725865      31.725837      31.725915      31933.073    
      1486   0             -17270.491     -2.9693077     -4.9433084     -1.9824483     -1.9821663      33.615109      15.882778     -39.880519      31.725865      31.725837      31.725915      31933.073    
      1487   0             -17270.491     -2.9693077     -4.9433083     -1.9824484     -1.9821663      33.615109      15.882778     -39.880519      31.725865      31.725837      31.725915      31933.073    
      1488   0             -17270.491     -2.9693076     -4.9433083     -1.9824484     -1.9821663      33.615109      15.882778     -39.880519      31.725865      31.725837      31.725915      31933.073    
      1489   0             -17270.491     -2.9693076     -4.9433082     -1.9824483     -1.9821664      33.615109      15.882778     -39.880519      31.725865      31.725837      31.725915      31933.073    
      1490   0             -17270.491     -2.9693077     -4.9433082     -1.9824484     -1.9821665      33.615109      15.882778     -39.880519      31.725865      31.725837      31.725915      31933.073    
      1491   0             -17270.491     -2.9693077     -4.9433082     -1.9824484     -1.9821665      33.615109      15.882778     -39.880519      31.725865      31.725837      31.725915      31933.073    
      1492   0             -17270.491     -2.9693077     -4.9433082     -1.9824483     -1.9821666      33.615109      15.882778     -39.880519      31.725865      31.725837      31.725915      31933.073    
      1493   0             -17270.491     -2.9693077     -4.9433082     -1.9824483     -1.9821666      33.615109      15.882778     -39.880519      31.725865      31.725837      31.725915      31933.073    
      1494   0             -17270.491     -2.9693077     -4.9433082     -1.9824483     -1.9821666      33.615109      15.882778     -39.880519      31.725865      31.725837      31.725915      31933.073    
      1495   0             -17270.491     -2.9693077     -4.9433082     -1.9824483     -1.9821666      33.615109      15.882778     -39.880519      31.725865      31.725837      31.725915      31933.073    
      1496   0             -17270.491     -2.9693077     -4.9433082     -1.9824483     -1.9821666      33.615109      15.882778     -39.880519      31.725865      31.725837      31.725915      31933.073    
      1497   0             -17270.491     -2.9693077     -4.9433082     -1.9824483     -1.9821666      33.615109      15.882778     -39.880519      31.725865      31.725837      31.725915      31933.073    
      1498   0             -17270.491     -2.9693077     -4.9433082     -1.9824483     -1.9821665      33.615109      15.882778     -39.880519      31.725865      31.725837      31.725915      31933.073    
      1499   0             -17270.491     -2.9693077     -4.9433082     -1.9824483     -1.9821665      33.615109      15.882778     -39.880519      31.725865      31.725837      31.725915      31933.073    
      1500   0             -17270.491     -2.9693077     -4.9433082     -1.9824483     -1.9821665      33.615109      15.882778     -39.880519      31.725865      31.725837      31.725915      31933.073    
      1501   0             -17270.491     -2.9693077     -4.9433082     -1.9824483     -1.9821665      33.615109      15.882778     -39.880519      31.725865      31.725837      31.725915      31933.073    
      1502   0             -17270.491     -2.9693077     -4.9433082     -1.9824483     -1.9821665      33.615109      15.882778     -39.880519      31.725865      31.725837      31.725915      31933.073    
      1503   0             -17270.491     -2.9693077     -4.9433082     -1.9824483     -1.9821665      33.615109      15.882778     -39.880519      31.725865      31.725837      31.725915      31933.073    
      1504   0             -17270.491     -2.9693077     -4.9433082     -1.9824483     -1.9821665      33.615109      15.882778     -39.880519      31.725865      31.725837      31.725915      31933.073    
      1505   0             -17270.491     -2.9693077     -4.9433082     -1.9824483     -1.9821665      33.615109      15.882778     -39.880519      31.725865      31.725837      31.725915      31933.073    
      1506   0             -17270.491     -2.9693077     -4.9433082     -1.9824483     -1.9821665      33.615109      15.882778     -39.880519      31.725865      31.725837      31.725915      31933.073    
Loop time of 0.0566882 on 8 procs for 54 steps with 2000 atoms

97.1% CPU use with 8 MPI tasks x no OpenMP threads

Minimization stats:
  Stopping criterion = force tolerance
  Energy initial, next-to-last, final = 
     -17270.4914895822  -17270.4914913711  -17270.4914913712
  Force two-norm initial, final = 0.0088855515 9.6933888e-11
  Force max component initial, final = 0.00031598434 4.7591084e-12
  Final line search alpha, max atom move = 1 4.7591084e-12
  Iterations, force evaluations = 54 108

MPI task timing breakdown:
Section |  min time  |  avg time  |  max time  |%varavg| %total
---------------------------------------------------------------
Pair    | 0.049339   | 0.04942    | 0.049508   |   0.0 | 87.18
Neigh   | 0          | 0          | 0          |   0.0 |  0.00
Comm    | 0.0048056  | 0.0048874  | 0.0049755  |   0.1 |  8.62
Output  | 0.00075235 | 0.00079353 | 0.001065   |   0.0 |  1.40
Modify  | 0          | 0          | 0          |   0.0 |  0.00
Other   |            | 0.001588   |            |       |  2.80

Nlocal:            250 ave         272 max         222 min
Histogram: 1 0 1 1 0 0 2 1 1 1
Nghost:           1479 ave        1507 max        1457 min
Histogram: 1 1 1 1 1 0 1 1 0 1
Neighs:          14000 ave       15421 max       12345 min
Histogram: 1 0 1 1 0 2 0 1 1 1

Total # of neighbors = 112000
Ave neighs/atom = 56
Neighbor list builds = 0
Dangerous builds = 0

# Obtain new stress tensor

variable tmp equal pe
variable e1 equal ${tmp}
variable e1 equal -17270.4914913712
variable tmp equal press
variable p1 equal ${tmp}
variable p1 equal -2.96930766761483
variable tmp equal pxx
variable pxx1 equal ${tmp}
variable pxx1 equal -4.94330818578424
variable tmp equal pyy
variable pyy1 equal ${tmp}
variable pyy1 equal -1.98244829534394
variable tmp equal pzz
variable pzz1 equal ${tmp}
variable pzz1 equal -1.98216652171632
variable tmp equal pxy
variable pxy1 equal ${tmp}
variable pxy1 equal 33.6151088916256
variable tmp equal pxz
variable pxz1 equal ${tmp}
variable pxz1 equal 15.8827782173724
variable tmp equal pyz
variable pyz1 equal ${tmp}
variable pyz1 equal -39.8805189210633

# Compute elastic constant from pressure tensor

variable C1pos equal ${d1}
variable C1pos equal 494.330818734143
variable C2pos equal ${d2}
variable C2pos equal 198.244829514715
variable C3pos equal ${d3}
variable C3pos equal 198.216652064468
variable C4pos equal ${d4}
variable C4pos equal -0.00247520874978591
variable C5pos equal ${d5}
variable C5pos equal -0.0119747916098589
variable C6pos equal ${d6}
variable C6pos equal -0.0264285239801154

# Combine positive and negative

variable C1${dir} equal 0.5*(${C1neg}+${C1pos})
variable C11 equal 0.5*(${C1neg}+${C1pos})
variable C11 equal 0.5*(494.333317611048+${C1pos})
variable C11 equal 0.5*(494.333317611048+494.330818734143)
variable C2${dir} equal 0.5*(${C2neg}+${C2pos})
variable C21 equal 0.5*(${C2neg}+${C2pos})
variable C21 equal 0.5*(198.246105066587+${C2pos})
variable C21 equal 0.5*(198.246105066587+198.244829514715)
variable C3${dir} equal 0.5*(${C3neg}+${C3pos})
variable C31 equal 0.5*(${C3neg}+${C3pos})
variable C31 equal 0.5*(198.217927766897+${C3pos})
variable C31 equal 0.5*(198.217927766897+198.216652064468)
variable C4${dir} equal 0.5*(${C4neg}+${C4pos})
variable C41 equal 0.5*(${C4neg}+${C4pos})
variable C41 equal 0.5*(-0.00247516411064907+${C4pos})
variable C41 equal 0.5*(-0.00247516411064907+-0.00247520874978591)
variable C5${dir} equal 0.5*(${C5neg}+${C5pos})
variable C51 equal 0.5*(${C5neg}+${C5pos})
variable C51 equal 0.5*(-0.011975141640086+${C5pos})
variable C51 equal 0.5*(-0.011975141640086+-0.0119747916098589)
variable C6${dir} equal 0.5*(${C6neg}+${C6pos})
variable C61 equal 0.5*(${C6neg}+${C6pos})
variable C61 equal 0.5*(-0.0264288167798554+${C6pos})
variable C61 equal 0.5*(-0.0264288167798554+-0.0264285239801154)

# Delete dir to make sure it is not reused

variable dir delete

# uyy Perturbation

variable dir equal 2
include displace.mod
# NOTE: This script should not need to be
# modified. See in.elastic for more info.
#
# Find which reference length to use

if "${dir} == 1" then    "variable len0 equal ${lx0}"
if "${dir} == 2" then    "variable len0 equal ${ly0}"
variable len0 equal ${ly0}
variable len0 equal 31.7258365834915
if "${dir} == 3" then    "variable len0 equal ${lz0}"
if "${dir} == 4" then    "variable len0 equal ${lz0}"
if "${dir} == 5" then    "variable len0 equal ${lz0}"
if "${dir} == 6" then    "variable len0 equal ${ly0}"

# Reset box and simulation parameters

clear
box tilt large

The 'box' command has been removed and will be ignored

read_restart restart.equil
Reading restart file ...
  restart file = 29 Aug 2024, LAMMPS = 29 Aug 2024
  restoring atom style atomic from restart
  triclinic box = (0.13708331 0.13708171 0.13704269) to (31.862917 31.862918 31.862957) with tilt (0 0 0)
  2 by 2 by 2 MPI processor grid
  pair style eam/alloy stores no restart info
  2000 atoms
  read_restart CPU = 0.000 seconds
include ${potential}
include potential4.mod
# NOTE: This script can be modified for different pair styles
# See in.elastic for more info.

# Choose potential
pair_style	eam/alloy
pair_coeff	* * ../NbMoTaW_Zhou04.eam.alloy Nb Mo Ta W
Reading eam/alloy potential file ../NbMoTaW_Zhou04.eam.alloy with DATE: 2018-03-30

# Setup neighbor style
neighbor 1.0 nsq
neigh_modify once no every 1 delay 0 check yes

# Setup minimization style
min_style	     cg
min_modify	     dmax ${dmax} line quadratic
min_modify	     dmax 0.01 line quadratic

# Setup output
thermo		1
thermo_style custom step temp pe press pxx pyy pzz pxy pxz pyz lx ly lz vol
thermo_modify norm no

# Negative deformation

variable delta equal -${up}*${len0}
variable delta equal -1e-06*${len0}
variable delta equal -1e-06*31.7258365834915
variable deltaxy equal -${up}*xy
variable deltaxy equal -1e-06*xy
variable deltaxz equal -${up}*xz
variable deltaxz equal -1e-06*xz
variable deltayz equal -${up}*yz
variable deltayz equal -1e-06*yz
if "${dir} == 1" then    "change_box all x delta 0 ${delta} xy delta ${deltaxy} xz delta ${deltaxz} remap units box"
if "${dir} == 2" then    "change_box all y delta 0 ${delta} yz delta ${deltayz} remap units box"
change_box all y delta 0 ${delta} yz delta ${deltayz} remap units box
change_box all y delta 0 -3.17258365834915e-05 yz delta ${deltayz} remap units box
change_box all y delta 0 -3.17258365834915e-05 yz delta 0 remap units box
Changing box ...
  triclinic box = (0.13708331 0.13708171 0.13704269) to (31.862917 31.862887 31.862957) with tilt (0 0 0)
  triclinic box = (0.13708331 0.13708171 0.13704269) to (31.862917 31.862887 31.862957) with tilt (0 0 0)
if "${dir} == 3" then    "change_box all z delta 0 ${delta} remap units box"
if "${dir} == 4" then    "change_box all yz delta ${delta} remap units box"
if "${dir} == 5" then    "change_box all xz delta ${delta} remap units box"
if "${dir} == 6" then    "change_box all xy delta ${delta} remap units box"

# Relax atoms positions

minimize ${etol} ${ftol} ${maxiter} ${maxeval}
minimize 0 ${ftol} ${maxiter} ${maxeval}
minimize 0 1e-10 ${maxiter} ${maxeval}
minimize 0 1e-10 100000 ${maxeval}
minimize 0 1e-10 100000 100000
Neighbor list info ...
  update: every = 1 steps, delay = 0 steps, check = yes
  max neighbors/atom: 2000, page size: 100000
  master list distance cutoff = 7.3953378
  ghost atom cutoff = 7.3953378
  1 neighbor lists, perpetual/occasional/extra = 1 0 0
  (1) pair eam/alloy, perpetual
      attributes: half, newton on
      pair build: half/nsq/newton/tri
      stencil: none
      bin: none
Per MPI rank memory allocation (min/avg/max) = 4.47 | 4.47 | 4.47 Mbytes
   Step          Temp          PotEng         Press           Pxx            Pyy            Pzz            Pxy            Pxz            Pyz             Lx             Ly             Lz           Volume    
      1452   0             -17270.491      2.9873901      2.0061481      4.9732492      1.9827731      33.609921      15.88891      -39.896407      31.725833      31.725805      31.725915      31933.009    
      1453   0             -17270.491      2.9720474      1.9826606      4.9497796      1.9837019      33.610012      15.888984     -39.879624      31.725833      31.725805      31.725915      31933.009    
      1454   0             -17270.491      2.9710286      1.983384       4.9444441      1.9852576      33.612456      15.883495     -39.881862      31.725833      31.725805      31.725915      31933.009    
      1455   0             -17270.491      2.9691561      1.981664       4.9424867      1.9833177      33.612374      15.881499     -39.881017      31.725833      31.725805      31.725915      31933.009    
      1456   0             -17270.491      2.9687447      1.9808453      4.94294        1.9824487      33.612607      15.881247     -39.880023      31.725833      31.725805      31.725915      31933.009    
      1457   0             -17270.491      2.969125       1.9811452      4.9436121      1.9826177      33.613162      15.882112     -39.880291      31.725833      31.725805      31.725915      31933.009    
      1458   0             -17270.491      2.9692307      1.9817247      4.9435459      1.9824215      33.613837      15.882866     -39.880193      31.725833      31.725805      31.725915      31933.009    
      1459   0             -17270.491      2.9691518      1.9819038      4.9433277      1.982224       33.614392      15.883089     -39.880185      31.725833      31.725805      31.725915      31933.009    
      1460   0             -17270.491      2.9692224      1.9820591      4.9432916      1.9823165      33.614689      15.883147     -39.880282      31.725833      31.725805      31.725915      31933.009    
      1461   0             -17270.491      2.9693463      1.9823318      4.9433405      1.9823667      33.614737      15.88326      -39.880334      31.725833      31.725805      31.725915      31933.009    
      1462   0             -17270.491      2.9693796      1.982532       4.9433023      1.9823044      33.614674      15.883109     -39.880356      31.725833      31.725805      31.725915      31933.009    
      1463   0             -17270.491      2.9692829      1.982535       4.9430734      1.9822404      33.61452       15.882968     -39.88041       31.725833      31.725805      31.725915      31933.009    
      1464   0             -17270.491      2.9692799      1.9825359      4.9430652      1.9822385      33.614435      15.882894     -39.880444      31.725833      31.725805      31.725915      31933.009    
      1465   0             -17270.491      2.969322       1.9825485      4.943159       1.9822586      33.614411      15.882783     -39.880414      31.725833      31.725805      31.725915      31933.009    
      1466   0             -17270.491      2.9693305      1.9825368      4.9431981      1.9822566      33.614376      15.882765     -39.880421      31.725833      31.725805      31.725915      31933.009    
      1467   0             -17270.491      2.969325       1.9824867      4.9432234      1.9822648      33.614407      15.882773     -39.880434      31.725833      31.725805      31.725915      31933.009    
      1468   0             -17270.491      2.9693153      1.9824522      4.9432484      1.9822453      33.614461      15.882816     -39.880431      31.725833      31.725805      31.725915      31933.009    
      1469   0             -17270.491      2.9693174      1.9824425      4.9432758      1.982234       33.614502      15.882851     -39.880406      31.725833      31.725805      31.725915      31933.009    
      1470   0             -17270.491      2.9693121      1.9824299      4.943294       1.9822123      33.614522      15.882871     -39.880387      31.725833      31.725805      31.725915      31933.009    
      1471   0             -17270.491      2.9693053      1.9824301      4.9432946      1.9821911      33.61454       15.882893     -39.880376      31.725833      31.725805      31.725915      31933.009    
      1472   0             -17270.491      2.9693188      1.9824619      4.943294       1.9822005      33.614547      15.882897     -39.880373      31.725833      31.725805      31.725915      31933.009    
      1473   0             -17270.491      2.9693192      1.9824758      4.9432891      1.9821927      33.614543      15.882899     -39.880379      31.725833      31.725805      31.725915      31933.009    
      1474   0             -17270.491      2.9693194      1.9824715      4.9432906      1.982196       33.614541      15.8829       -39.880387      31.725833      31.725805      31.725915      31933.009    
      1475   0             -17270.491      2.9693178      1.982464       4.9432868      1.9822027      33.614543      15.88291      -39.880394      31.725833      31.725805      31.725915      31933.009    
      1476   0             -17270.491      2.9693138      1.9824561      4.9432798      1.9822054      33.614539      15.882914     -39.880395      31.725833      31.725805      31.725915      31933.009    
      1477   0             -17270.491      2.9693133      1.9824573      4.9432754      1.9822071      33.614534      15.882915     -39.880395      31.725833      31.725805      31.725915      31933.009    
      1478   0             -17270.491      2.9693153      1.9824601      4.9432755      1.9822105      33.614531      15.882918     -39.880395      31.725833      31.725805      31.725915      31933.009    
      1479   0             -17270.491      2.9693172      1.982461       4.943276       1.9822147      33.614531      15.882919     -39.880394      31.725833      31.725805      31.725915      31933.009    
      1480   0             -17270.491      2.969317       1.9824605      4.9432749      1.9822156      33.614531      15.882919     -39.880394      31.725833      31.725805      31.725915      31933.009    
      1481   0             -17270.491      2.9693169      1.9824603      4.9432746      1.9822159      33.614531      15.882919     -39.880393      31.725833      31.725805      31.725915      31933.009    
      1482   0             -17270.491      2.9693171      1.9824609      4.9432741      1.9822163      33.614531      15.88292      -39.880393      31.725833      31.725805      31.725915      31933.009    
      1483   0             -17270.491      2.9693169      1.982461       4.9432733      1.9822164      33.614532      15.88292      -39.880394      31.725833      31.725805      31.725915      31933.009    
      1484   0             -17270.491      2.9693169      1.982461       4.9432731      1.9822165      33.614532      15.88292      -39.880394      31.725833      31.725805      31.725915      31933.009    
      1485   0             -17270.491      2.9693168      1.9824609      4.9432729      1.9822167      33.614532      15.882919     -39.880394      31.725833      31.725805      31.725915      31933.009    
      1486   0             -17270.491      2.9693168      1.9824609      4.9432728      1.9822168      33.614532      15.882919     -39.880394      31.725833      31.725805      31.725915      31933.009    
      1487   0             -17270.491      2.9693168      1.9824609      4.9432727      1.9822168      33.614532      15.882919     -39.880394      31.725833      31.725805      31.725915      31933.009    
      1488   0             -17270.491      2.9693168      1.9824609      4.9432727      1.9822169      33.614532      15.882919     -39.880394      31.725833      31.725805      31.725915      31933.009    
      1489   0             -17270.491      2.9693169      1.982461       4.9432728      1.9822168      33.614532      15.882919     -39.880394      31.725833      31.725805      31.725915      31933.009    
      1490   0             -17270.491      2.9693168      1.9824611      4.9432727      1.9822167      33.614532      15.882919     -39.880394      31.725833      31.725805      31.725915      31933.009    
      1491   0             -17270.491      2.9693168      1.9824611      4.9432727      1.9822166      33.614532      15.882919     -39.880394      31.725833      31.725805      31.725915      31933.009    
      1492   0             -17270.491      2.9693168      1.9824611      4.9432728      1.9822166      33.614532      15.882919     -39.880394      31.725833      31.725805      31.725915      31933.009    
      1493   0             -17270.491      2.9693168      1.9824611      4.9432728      1.9822166      33.614532      15.882919     -39.880394      31.725833      31.725805      31.725915      31933.009    
      1494   0             -17270.491      2.9693168      1.982461       4.9432728      1.9822166      33.614532      15.882919     -39.880394      31.725833      31.725805      31.725915      31933.009    
      1495   0             -17270.491      2.9693168      1.982461       4.9432728      1.9822166      33.614532      15.882919     -39.880394      31.725833      31.725805      31.725915      31933.009    
      1496   0             -17270.491      2.9693168      1.9824611      4.9432728      1.9822166      33.614532      15.882919     -39.880394      31.725833      31.725805      31.725915      31933.009    
      1497   0             -17270.491      2.9693168      1.9824611      4.9432728      1.9822166      33.614532      15.882919     -39.880394      31.725833      31.725805      31.725915      31933.009    
      1498   0             -17270.491      2.9693168      1.9824611      4.9432728      1.9822166      33.614532      15.882919     -39.880394      31.725833      31.725805      31.725915      31933.009    
      1499   0             -17270.491      2.9693168      1.9824611      4.9432728      1.9822166      33.614532      15.882919     -39.880394      31.725833      31.725805      31.725915      31933.009    
      1500   0             -17270.491      2.9693168      1.9824611      4.9432728      1.9822166      33.614532      15.882919     -39.880394      31.725833      31.725805      31.725915      31933.009    
      1501   0             -17270.491      2.9693168      1.9824611      4.9432728      1.9822166      33.614532      15.882919     -39.880394      31.725833      31.725805      31.725915      31933.009    
      1502   0             -17270.491      2.9693168      1.982461       4.9432728      1.9822166      33.614532      15.882919     -39.880394      31.725833      31.725805      31.725915      31933.009    
      1503   0             -17270.491      2.9693168      1.9824611      4.9432728      1.9822166      33.614532      15.882919     -39.880394      31.725833      31.725805      31.725915      31933.009    
      1504   0             -17270.491      2.9693168      1.9824611      4.9432728      1.9822166      33.614532      15.882919     -39.880394      31.725833      31.725805      31.725915      31933.009    
      1505   0             -17270.491      2.9693168      1.9824611      4.9432728      1.9822166      33.614532      15.882919     -39.880394      31.725833      31.725805      31.725915      31933.009    
      1506   0             -17270.491      2.9693168      1.9824611      4.9432728      1.9822166      33.614532      15.882919     -39.880394      31.725833      31.725805      31.725915      31933.009    
Loop time of 0.0572846 on 8 procs for 54 steps with 2000 atoms

96.7% CPU use with 8 MPI tasks x no OpenMP threads

Minimization stats:
  Stopping criterion = force tolerance
  Energy initial, next-to-last, final = 
     -17270.4914895815  -17270.4914913712  -17270.4914913712
  Force two-norm initial, final = 0.0088875908 9.5224713e-11
  Force max component initial, final = 0.00031612306 4.788794e-12
  Final line search alpha, max atom move = 1 4.788794e-12
  Iterations, force evaluations = 54 108

MPI task timing breakdown:
Section |  min time  |  avg time  |  max time  |%varavg| %total
---------------------------------------------------------------
Pair    | 0.049914   | 0.050003   | 0.050087   |   0.0 | 87.29
Neigh   | 0          | 0          | 0          |   0.0 |  0.00
Comm    | 0.0047922  | 0.004873   | 0.0049671  |   0.1 |  8.51
Output  | 0.00074475 | 0.00079217 | 0.0010799  |   0.0 |  1.38
Modify  | 0          | 0          | 0          |   0.0 |  0.00
Other   |            | 0.001616   |            |       |  2.82

Nlocal:            250 ave         272 max         222 min
Histogram: 1 0 1 1 0 0 2 1 1 1
Nghost:           1479 ave        1507 max        1457 min
Histogram: 1 1 1 1 1 0 1 1 0 1
Neighs:          14000 ave       15421 max       12345 min
Histogram: 1 0 1 1 0 2 0 1 1 1

Total # of neighbors = 112000
Ave neighs/atom = 56
Neighbor list builds = 0
Dangerous builds = 0

# Obtain new stress tensor

variable tmp equal pxx
variable pxx1 equal ${tmp}
variable pxx1 equal 1.98246105042202
variable tmp equal pyy
variable pyy1 equal ${tmp}
variable pyy1 equal 4.94327280026609
variable tmp equal pzz
variable pzz1 equal ${tmp}
variable pzz1 equal 1.98221663098341
variable tmp equal pxy
variable pxy1 equal ${tmp}
variable pxy1 equal 33.6145318108083
variable tmp equal pxz
variable pxz1 equal ${tmp}
variable pxz1 equal 15.8829191159473
variable tmp equal pyz
variable pyz1 equal ${tmp}
variable pyz1 equal -39.8803937712505

# Compute elastic constant from pressure tensor

variable C1neg equal ${d1}
variable C1neg equal 198.246104886483
variable C2neg equal ${d2}
variable C2neg equal 494.327280046288
variable C3neg equal ${d3}
variable C3neg equal 198.221663205505
variable C4neg equal ${d4}
variable C4neg equal 0.0149901900293514
variable C5neg equal ${d5}
variable C5neg equal 0.0260646491000216
variable C6neg equal ${d6}
variable C6neg equal -0.0312795577499969

# Reset box and simulation parameters

clear
box tilt large

The 'box' command has been removed and will be ignored

read_restart restart.equil
Reading restart file ...
  restart file = 29 Aug 2024, LAMMPS = 29 Aug 2024
  restoring atom style atomic from restart
  triclinic box = (0.13708331 0.13708171 0.13704269) to (31.862917 31.862918 31.862957) with tilt (0 0 0)
  2 by 2 by 2 MPI processor grid
  pair style eam/alloy stores no restart info
  2000 atoms
  read_restart CPU = 0.000 seconds
include ${potential}
include potential4.mod
# NOTE: This script can be modified for different pair styles
# See in.elastic for more info.

# Choose potential
pair_style	eam/alloy
pair_coeff	* * ../NbMoTaW_Zhou04.eam.alloy Nb Mo Ta W
Reading eam/alloy potential file ../NbMoTaW_Zhou04.eam.alloy with DATE: 2018-03-30

# Setup neighbor style
neighbor 1.0 nsq
neigh_modify once no every 1 delay 0 check yes

# Setup minimization style
min_style	     cg
min_modify	     dmax ${dmax} line quadratic
min_modify	     dmax 0.01 line quadratic

# Setup output
thermo		1
thermo_style custom step temp pe press pxx pyy pzz pxy pxz pyz lx ly lz vol
thermo_modify norm no

# Positive deformation

variable delta equal ${up}*${len0}
variable delta equal 1e-06*${len0}
variable delta equal 1e-06*31.7258365834915
variable deltaxy equal ${up}*xy
variable deltaxy equal 1e-06*xy
variable deltaxz equal ${up}*xz
variable deltaxz equal 1e-06*xz
variable deltayz equal ${up}*yz
variable deltayz equal 1e-06*yz
if "${dir} == 1" then    "change_box all x delta 0 ${delta} xy delta ${deltaxy} xz delta ${deltaxz} remap units box"
if "${dir} == 2" then    "change_box all y delta 0 ${delta} yz delta ${deltayz} remap units box"
change_box all y delta 0 ${delta} yz delta ${deltayz} remap units box
change_box all y delta 0 3.17258365834915e-05 yz delta ${deltayz} remap units box
change_box all y delta 0 3.17258365834915e-05 yz delta 0 remap units box
Changing box ...
  triclinic box = (0.13708331 0.13708171 0.13704269) to (31.862917 31.86295 31.862957) with tilt (0 0 0)
  triclinic box = (0.13708331 0.13708171 0.13704269) to (31.862917 31.86295 31.862957) with tilt (0 0 0)
if "${dir} == 3" then    "change_box all z delta 0 ${delta} remap units box"
if "${dir} == 4" then    "change_box all yz delta ${delta} remap units box"
if "${dir} == 5" then    "change_box all xz delta ${delta} remap units box"
if "${dir} == 6" then    "change_box all xy delta ${delta} remap units box"

# Relax atoms positions

minimize ${etol} ${ftol} ${maxiter} ${maxeval}
minimize 0 ${ftol} ${maxiter} ${maxeval}
minimize 0 1e-10 ${maxiter} ${maxeval}
minimize 0 1e-10 100000 ${maxeval}
minimize 0 1e-10 100000 100000
Neighbor list info ...
  update: every = 1 steps, delay = 0 steps, check = yes
  max neighbors/atom: 2000, page size: 100000
  master list distance cutoff = 7.3953378
  ghost atom cutoff = 7.3953378
  1 neighbor lists, perpetual/occasional/extra = 1 0 0
  (1) pair eam/alloy, perpetual
      attributes: half, newton on
      pair build: half/nsq/newton/tri
      stencil: none
      bin: none
Per MPI rank memory allocation (min/avg/max) = 4.47 | 4.47 | 4.47 Mbytes
   Step          Temp          PotEng         Press           Pxx            Pyy            Pzz            Pxy            Pxz            Pyz             Lx             Ly             Lz           Volume    
      1452   0             -17270.491     -2.9677155     -1.9666782     -4.9465059     -1.9899626      33.609824      15.888567     -39.89627       31.725833      31.725868      31.725915      31933.073    
      1453   0             -17270.491     -2.973235      -1.9839876     -4.952978      -1.9827394      33.610282      15.888676     -39.879588      31.725833      31.725868      31.725915      31933.073    
      1454   0             -17270.491     -2.9692095     -1.9804106     -4.9490376     -1.9781805      33.612909      15.883136     -39.881841      31.725833      31.725868      31.725915      31933.073    
      1455   0             -17270.491     -2.9698876     -1.9818487     -4.9480307     -1.9797833      33.612886      15.881064     -39.881051      31.725833      31.725868      31.725915      31933.073    
      1456   0             -17270.491     -2.9699063     -1.982913      -4.9459447     -1.9808611      33.613158      15.880771     -39.880128      31.725833      31.725868      31.725915      31933.073    
      1457   0             -17270.491     -2.9694577     -1.9830207     -4.9442977     -1.9810546      33.613745      15.881605     -39.880469      31.725833      31.725868      31.725915      31933.073    
      1458   0             -17270.491     -2.9693881     -1.9827815     -4.9438194     -1.9815632      33.614442      15.882329     -39.880429      31.725833      31.725868      31.725915      31933.073    
      1459   0             -17270.491     -2.9694813     -1.9827916     -4.9437116     -1.9819407      33.615008      15.882537     -39.880459      31.725833      31.725868      31.725915      31933.073    
      1460   0             -17270.491     -2.969396      -1.9827228     -4.9435345     -1.9819306      33.61531       15.882592     -39.880574      31.725833      31.725868      31.725915      31933.073    
      1461   0             -17270.491     -2.9692574     -1.9824922     -4.9433528     -1.981927       33.615358      15.88271      -39.880632      31.725833      31.725868      31.725915      31933.073    
      1462   0             -17270.491     -2.9692215     -1.9823237     -4.9433066     -1.9820343      33.615292      15.882565     -39.880655      31.725833      31.725868      31.725915      31933.073    
      1463   0             -17270.491     -2.9693268     -1.9823535     -4.9434842     -1.9821426      33.615136      15.882434     -39.88071       31.725833      31.725868      31.725915      31933.073    
      1464   0             -17270.491     -2.9693403     -1.9823807     -4.9434597     -1.9821805      33.615053      15.882371     -39.880746      31.725833      31.725868      31.725915      31933.073    
      1465   0             -17270.491     -2.9693034     -1.9823844     -4.9433439     -1.9821818      33.615034      15.882267     -39.880718      31.725833      31.725868      31.725915      31933.073    
      1466   0             -17270.491     -2.9692919     -1.9823975     -4.9432914     -1.9821868      33.615004      15.882254     -39.880727      31.725833      31.725868      31.725915      31933.073    
      1467   0             -17270.491     -2.9692923     -1.9824421     -4.9432605     -1.9821741      33.615038      15.882262     -39.880739      31.725833      31.725868      31.725915      31933.073    
      1468   0             -17270.491     -2.9692994     -1.9824704     -4.9432383     -1.9821894      33.615092      15.882303     -39.880735      31.725833      31.725868      31.725915      31933.073    
      1469   0             -17270.491     -2.969297      -1.9824745     -4.9432191     -1.9821974      33.61513       15.882335     -39.880707      31.725833      31.725868      31.725915      31933.073    
      1470   0             -17270.491     -2.9693032     -1.9824831     -4.9432098     -1.9822166      33.615148      15.882352     -39.880686      31.725833      31.725868      31.725915      31933.073    
      1471   0             -17270.491     -2.9693116     -1.9824815     -4.9432169     -1.9822364      33.615164      15.882372     -39.880674      31.725833      31.725868      31.725915      31933.073    
      1472   0             -17270.491     -2.969299      -1.9824493     -4.9432222     -1.9822254      33.615171      15.882374     -39.88067       31.725833      31.725868      31.725915      31933.073    
      1473   0             -17270.491     -2.9692983     -1.9824345     -4.9432292     -1.9822312      33.615166      15.882375     -39.880676      31.725833      31.725868      31.725915      31933.073    
      1474   0             -17270.491     -2.9692979     -1.9824382     -4.9432295     -1.9822262      33.615165      15.882376     -39.880685      31.725833      31.725868      31.725915      31933.073    
      1475   0             -17270.491     -2.9692995     -1.982445      -4.9432353     -1.9822182      33.615168      15.882387     -39.880693      31.725833      31.725868      31.725915      31933.073    
      1476   0             -17270.491     -2.9693034     -1.9824523     -4.9432433     -1.9822145      33.615164      15.882391     -39.880694      31.725833      31.725868      31.725915      31933.073    
      1477   0             -17270.491     -2.9693037     -1.9824508     -4.9432479     -1.9822125      33.615159      15.882392     -39.880695      31.725833      31.725868      31.725915      31933.073    
      1478   0             -17270.491     -2.9693017     -1.9824483     -4.9432476     -1.9822092      33.615157      15.882396     -39.880695      31.725833      31.725868      31.725915      31933.073    
      1479   0             -17270.491     -2.9692998     -1.9824476     -4.9432465     -1.9822053      33.615157      15.882397     -39.880694      31.725833      31.725868      31.725915      31933.073    
      1480   0             -17270.491     -2.9693        -1.9824484     -4.943247      -1.9822046      33.615157      15.882397     -39.880693      31.725833      31.725868      31.725915      31933.073    
      1481   0             -17270.491     -2.9693        -1.9824487     -4.9432468     -1.9822044      33.615157      15.882398     -39.880693      31.725833      31.725868      31.725915      31933.073    
      1482   0             -17270.491     -2.9692997     -1.9824482     -4.943247      -1.982204       33.615157      15.882398     -39.880693      31.725833      31.725868      31.725915      31933.073    
      1483   0             -17270.491     -2.9692999     -1.9824481     -4.9432476     -1.9822039      33.615157      15.882398     -39.880693      31.725833      31.725868      31.725915      31933.073    
      1484   0             -17270.491     -2.9693        -1.9824482     -4.9432477     -1.9822039      33.615157      15.882398     -39.880694      31.725833      31.725868      31.725915      31933.073    
[...]
      1483   0             -17270.491      0.00019793203  0.00033164431  0.00031471558 -5.2563807e-05  32.117548      15.882602     -39.880479      31.725833      31.725837      31.725915      31933.041    
      1484   0             -17270.491      0.0001978681   0.00033157394  0.00031452886 -5.2498504e-05  32.117548      15.882601     -39.880479      31.725833      31.725837      31.725915      31933.041    
      1485   0             -17270.491      0.00019784445  0.00033142594  0.00031443311 -5.2325713e-05  32.117548      15.882601     -39.880479      31.725833      31.725837      31.725915      31933.041    
      1486   0             -17270.491      0.00019781948  0.00033140894  0.00031432362 -5.2274128e-05  32.117548      15.882601     -39.880479      31.725833      31.725837      31.725915      31933.041    
      1487   0             -17270.491      0.00019780055  0.00033142034  0.00031424222 -5.2260897e-05  32.117548      15.882601     -39.880479      31.725833      31.725837      31.725915      31933.041    
      1488   0             -17270.491      0.00019785214  0.00033146985  0.00031431451 -5.222795e-05   32.117548      15.882601     -39.880479      31.725833      31.725837      31.725915      31933.041    
      1489   0             -17270.491      0.00019786259  0.00033153521  0.00031434095 -5.2288389e-05  32.117548      15.882601     -39.880479      31.725833      31.725837      31.725915      31933.041    
      1490   0             -17270.491      0.00019783958  0.00033158091  0.00031431975 -5.2381907e-05  32.117548      15.882601     -39.880479      31.725833      31.725837      31.725915      31933.041    
      1491   0             -17270.491      0.00019781016  0.00033157268  0.00031431583 -5.2458044e-05  32.117548      15.882601     -39.880479      31.725833      31.725837      31.725915      31933.041    
      1492   0             -17270.491      0.00019780633  0.00033157983  0.00031433862 -5.2499442e-05  32.117548      15.882601     -39.880479      31.725833      31.725837      31.725915      31933.041    
      1493   0             -17270.491      0.00019782881  0.0003316021   0.00031438164 -5.2497311e-05  32.117548      15.882601     -39.880479      31.725833      31.725837      31.725915      31933.041    
      1494   0             -17270.491      0.00019782423  0.00033158087  0.000314389   -5.2497165e-05  32.117548      15.882601     -39.880479      31.725833      31.725837      31.725915      31933.041    
      1495   0             -17270.491      0.00019781567  0.00033156768  0.00031438444 -5.2505095e-05  32.117548      15.882601     -39.880479      31.725833      31.725837      31.725915      31933.041    
      1496   0             -17270.491      0.00019782239  0.00033158856  0.00031438006 -5.2501462e-05  32.117548      15.882601     -39.880479      31.725833      31.725837      31.725915      31933.041    
      1497   0             -17270.491      0.00019782783  0.00033159779  0.00031437358 -5.248788e-05   32.117548      15.882601     -39.880479      31.725833      31.725837      31.725915      31933.041    
      1498   0             -17270.491      0.00019783202  0.00033159428  0.00031437209 -5.2470302e-05  32.117548      15.882601     -39.880479      31.725833      31.725837      31.725915      31933.041    
      1499   0             -17270.491      0.00019783293  0.00033158782  0.00031436586 -5.2454884e-05  32.117548      15.882601     -39.880479      31.725833      31.725837      31.725915      31933.041    
      1500   0             -17270.491      0.00019782931  0.00033158037  0.00031435895 -5.2451378e-05  32.117548      15.882601     -39.880479      31.725833      31.725837      31.725915      31933.041    
      1501   0             -17270.491      0.00019782961  0.00033157842  0.00031436139 -5.2450983e-05  32.117548      15.882601     -39.880479      31.725833      31.725837      31.725915      31933.041    
      1502   0             -17270.491      0.00019782925  0.00033157749  0.00031436423 -5.2453982e-05  32.117548      15.882601     -39.880479      31.725833      31.725837      31.725915      31933.041    
      1503   0             -17270.491      0.00019782908  0.00033157875  0.00031436517 -5.2456677e-05  32.117548      15.882601     -39.880479      31.725833      31.725837      31.725915      31933.041    
      1504   0             -17270.491      0.00019782989  0.00033158011  0.0003143663  -5.2456754e-05  32.117548      15.882601     -39.880479      31.725833      31.725837      31.725915      31933.041    
      1505   0             -17270.491      0.00019782981  0.0003315797   0.0003143661  -5.2456379e-05  32.117548      15.882601     -39.880479      31.725833      31.725837      31.725915      31933.041    
      1506   0             -17270.491      0.00019782936  0.00033157881  0.00031436564 -5.2456381e-05  32.117548      15.882601     -39.880479      31.725833      31.725837      31.725915      31933.041    
Loop time of 0.0569643 on 8 procs for 54 steps with 2000 atoms

96.7% CPU use with 8 MPI tasks x no OpenMP threads

Minimization stats:
  Stopping criterion = force tolerance
  Energy initial, next-to-last, final = 
     -17270.4914902861  -17270.4914920755  -17270.4914920755
  Force two-norm initial, final = 0.0088865866 9.501464e-11
  Force max component initial, final = 0.00031612081 4.7649973e-12
  Final line search alpha, max atom move = 1 4.7649973e-12
  Iterations, force evaluations = 54 108

MPI task timing breakdown:
Section |  min time  |  avg time  |  max time  |%varavg| %total
---------------------------------------------------------------
Pair    | 0.049581   | 0.049677   | 0.049802   |   0.0 | 87.21
Neigh   | 0          | 0          | 0          |   0.0 |  0.00
Comm    | 0.0047953  | 0.0049207  | 0.0050053  |   0.1 |  8.64
Output  | 0.00075004 | 0.00079513 | 0.0010675  |   0.0 |  1.40
Modify  | 0          | 0          | 0          |   0.0 |  0.00
Other   |            | 0.001572   |            |       |  2.76

Nlocal:            250 ave         272 max         222 min
Histogram: 1 0 1 1 0 0 2 1 1 1
Nghost:           1479 ave        1507 max        1457 min
Histogram: 1 1 1 1 1 0 1 1 0 1
Neighs:          14000 ave       15421 max       12345 min
Histogram: 1 0 1 1 0 2 0 1 1 1

Total # of neighbors = 112000
Ave neighs/atom = 56
Neighbor list builds = 0
Dangerous builds = 0

# Obtain new stress tensor

variable tmp equal pe
variable e1 equal ${tmp}
variable e1 equal -17270.4914920755
variable tmp equal press
variable p1 equal ${tmp}
variable p1 equal 0.000197829358021077
variable tmp equal pxx
variable pxx1 equal ${tmp}
variable pxx1 equal 0.000331578812644412
variable tmp equal pyy
variable pyy1 equal ${tmp}
variable pyy1 equal 0.000314365642295921
variable tmp equal pzz
variable pzz1 equal ${tmp}
variable pzz1 equal -5.24563808771037e-05
variable tmp equal pxy
variable pxy1 equal ${tmp}
variable pxy1 equal 32.1175481910007
variable tmp equal pxz
variable pxz1 equal ${tmp}
variable pxz1 equal 15.8826009683983
variable tmp equal pyz
variable pyz1 equal ${tmp}
variable pyz1 equal -39.8804790598641

# Compute elastic constant from pressure tensor

variable C1pos equal ${d1}
variable C1pos equal -0.033157725544971
variable C2pos equal ${d2}
variable C2pos equal -0.0314365839084263
variable C3pos equal ${d3}
variable C3pos equal 0.00524553092362439
variable C4pos equal ${d4}
variable C4pos equal -0.0064613286696158
variable C5pos equal ${d5}
variable C5pos equal 0.00575010580003976
variable C6pos equal ${d6}
variable C6pos equal 149.72964153851

# Combine positive and negative

variable C1${dir} equal 0.5*(${C1neg}+${C1pos})
variable C16 equal 0.5*(${C1neg}+${C1pos})
variable C16 equal 0.5*(-0.033145559177057+${C1pos})
variable C16 equal 0.5*(-0.033145559177057+-0.033157725544971)
variable C2${dir} equal 0.5*(${C2neg}+${C2pos})
variable C26 equal 0.5*(${C2neg}+${C2pos})
variable C26 equal 0.5*(-0.0311220415587557+${C2pos})
variable C26 equal 0.5*(-0.0311220415587557+-0.0314365839084263)
variable C3${dir} equal 0.5*(${C3neg}+${C3pos})
variable C36 equal 0.5*(${C3neg}+${C3pos})
variable C36 equal 0.5*(0.00588419764659464+${C3pos})
variable C36 equal 0.5*(0.00588419764659464+0.00524553092362439)
variable C4${dir} equal 0.5*(${C4neg}+${C4pos})
variable C46 equal 0.5*(${C4neg}+${C4pos})
variable C46 equal 0.5*(-0.00646143030067492+${C4pos})
variable C46 equal 0.5*(-0.00646143030067492+-0.0064613286696158)
variable C5${dir} equal 0.5*(${C5neg}+${C5pos})
variable C56 equal 0.5*(${C5neg}+${C5pos})
variable C56 equal 0.5*(0.00574988221000439+${C5pos})
variable C56 equal 0.5*(0.00574988221000439+0.00575010580003976)
variable C6${dir} equal 0.5*(${C6neg}+${C6pos})
variable C66 equal 0.5*(${C6neg}+${C6pos})
variable C66 equal 0.5*(149.72964146346+${C6pos})
variable C66 equal 0.5*(149.72964146346+149.72964153851)

# Delete dir to make sure it is not reused

variable dir delete

# Output final values

variable C11all equal ${C11}
variable C11all equal 494.332068172596
variable C22all equal ${C22}
variable C22all equal 494.326030692517
variable C33all equal ${C33}
variable C33all equal 494.333912709361

variable C12all equal 0.5*(${C12}+${C21})
variable C12all equal 0.5*(198.245467282237+${C21})
variable C12all equal 0.5*(198.245467282237+198.245467290651)
variable C13all equal 0.5*(${C13}+${C31})
variable C13all equal 0.5*(198.217289897288+${C31})
variable C13all equal 0.5*(198.217289897288+198.217289915682)
variable C23all equal 0.5*(${C23}+${C32})
variable C23all equal 0.5*(198.221025914467+${C32})
variable C23all equal 0.5*(198.221025914467+198.221025907337)

variable C44all equal ${C44}
variable C44all equal 149.720232337875
variable C55all equal ${C55}
variable C55all equal 149.754919679345
variable C66all equal ${C66}
variable C66all equal 149.729641500985

variable C14all equal 0.5*(${C14}+${C41})
variable C14all equal 0.5*(0.00151286156888631+${C41})
variable C14all equal 0.5*(0.00151286156888631+-0.00247518643021749)
variable C15all equal 0.5*(${C15}+${C51})
variable C15all equal 0.5*(-0.0151515024581818+${C51})
variable C15all equal 0.5*(-0.0151515024581818+-0.0119749666249724)
variable C16all equal 0.5*(${C16}+${C61})
variable C16all equal 0.5*(-0.033151642361014+${C61})
variable C16all equal 0.5*(-0.033151642361014+-0.0264286703799854)

variable C24all equal 0.5*(${C24}+${C42})
variable C24all equal 0.5*(0.022966329276575+${C42})
variable C24all equal 0.5*(0.022966329276575+0.0149902299646954)
variable C25all equal 0.5*(${C25}+${C52})
variable C25all equal 0.5*(0.0244764981962884+${C52})
variable C25all equal 0.5*(0.0244764981962884+0.0260647635800027)
variable C26all equal 0.5*(${C26}+${C62})
variable C26all equal 0.5*(-0.031279312733591+${C62})
variable C26all equal 0.5*(-0.031279312733591+-0.0312793246799003)

variable C34all equal 0.5*(${C34}+${C43})
variable C34all equal 0.5*(-0.0265572688157489+${C43})
variable C34all equal 0.5*(-0.0265572688157489+-0.0265572659301938)
variable C35all equal 0.5*(${C35}+${C53})
variable C35all equal 0.5*(-0.00641864547779883+${C53})
variable C35all equal 0.5*(-0.00641864547779883+-0.00641864392001423)
variable C36all equal 0.5*(${C36}+${C63})
variable C36all equal 0.5*(0.00556486428510952+${C63})
variable C36all equal 0.5*(0.00556486428510952+0.00892633846980573)

variable C45all equal 0.5*(${C45}+${C54})
variable C45all equal 0.5*(0.0172829737849156+${C54})
variable C45all equal 0.5*(0.0172829737849156+0.0172829707799416)
variable C46all equal 0.5*(${C46}+${C64})
variable C46all equal 0.5*(-0.00646137948514536+${C64})
variable C46all equal 0.5*(-0.00646137948514536+-0.00804964127993912)
variable C56all equal 0.5*(${C56}+${C65})
variable C56all equal 0.5*(0.00574999400502208+${C65})
variable C56all equal 0.5*(0.00574999400502208+0.00574999755009742)

# Average moduli for cubic crystals

variable C11cubic equal (${C11all}+${C22all}+${C33all})/3.0
variable C11cubic equal (494.332068172596+${C22all}+${C33all})/3.0
variable C11cubic equal (494.332068172596+494.326030692517+${C33all})/3.0
variable C11cubic equal (494.332068172596+494.326030692517+494.333912709361)/3.0
variable C12cubic equal (${C12all}+${C13all}+${C23all})/3.0
variable C12cubic equal (198.245467286444+${C13all}+${C23all})/3.0
variable C12cubic equal (198.245467286444+198.217289906485+${C23all})/3.0
variable C12cubic equal (198.245467286444+198.217289906485+198.221025910902)/3.0
variable C44cubic equal (${C44all}+${C55all}+${C66all})/3.0
variable C44cubic equal (149.720232337875+${C55all}+${C66all})/3.0
variable C44cubic equal (149.720232337875+149.754919679345+${C66all})/3.0
variable C44cubic equal (149.720232337875+149.754919679345+149.729641500985)/3.0

variable bulkmodulus equal (${C11cubic}+2*${C12cubic})/3.0
variable bulkmodulus equal (494.330670524825+2*${C12cubic})/3.0
variable bulkmodulus equal (494.330670524825+2*198.227927701277)/3.0
# variable shearmodulus1 equal ${C66}	# vertical to [111],along with [112]
variable	shearmodulus1 equal ${C66}
variable	shearmodulus1 equal 149.729641500985
variable 	shearmodulus2 equal (${C11cubic}-${C12cubic})/2.0
variable 	shearmodulus2 equal (494.330670524825-${C12cubic})/2.0
variable 	shearmodulus2 equal (494.330670524825-198.227927701277)/2.0
# variable	poissonratio equal
variable poissonratio equal 1.0/(1.0+${C11cubic}/${C12cubic})
variable poissonratio equal 1.0/(1.0+494.330670524825/${C12cubic})
variable poissonratio equal 1.0/(1.0+494.330670524825/198.227927701277)

# For Stillinger-Weber silicon, the analytical results
# are known to be (E. R. Cowley, 1988):
#               C11 = 151.4 GPa
#               C12 = 76.4 GPa
#               C44 = 56.4 GPa

print "=========================================" append ${output}
print "=========================================" append output4.txt
=========================================
print "Components of the Elastic Constant Tensor" append ${output}
print "Components of the Elastic Constant Tensor" append output4.txt
Components of the Elastic Constant Tensor
print "=========================================" append ${output}
print "=========================================" append output4.txt
=========================================
print "Prop: ${prop}" append ${output}
print "Prop: ${prop}" append output4.txt
Prop: 0.90


print "Elastic Constant C11all = ${C11all} ${cunits}" append  ${output}
print "Elastic Constant C11all = ${C11all} ${cunits}" append  output4.txt
Elastic Constant C11all = 494.332068172596 GPa
print "Elastic Constant C22all = ${C22all} ${cunits}" append  ${output}
print "Elastic Constant C22all = ${C22all} ${cunits}" append  output4.txt
Elastic Constant C22all = 494.326030692517 GPa
print "Elastic Constant C33all = ${C33all} ${cunits}" append  ${output}
print "Elastic Constant C33all = ${C33all} ${cunits}" append  output4.txt
Elastic Constant C33all = 494.333912709361 GPa

print "Elastic Constant C12all = ${C12all} ${cunits}" append  ${output}
print "Elastic Constant C12all = ${C12all} ${cunits}" append  output4.txt
Elastic Constant C12all = 198.245467286444 GPa
print "Elastic Constant C13all = ${C13all} ${cunits}" append  ${output}
print "Elastic Constant C13all = ${C13all} ${cunits}" append  output4.txt
Elastic Constant C13all = 198.217289906485 GPa
print "Elastic Constant C23all = ${C23all} ${cunits}" append  ${output}
print "Elastic Constant C23all = ${C23all} ${cunits}" append  output4.txt
Elastic Constant C23all = 198.221025910902 GPa

print "Elastic Constant C44all = ${C44all} ${cunits}" append  ${output}
print "Elastic Constant C44all = ${C44all} ${cunits}" append  output4.txt
Elastic Constant C44all = 149.720232337875 GPa
print "Elastic Constant C55all = ${C55all} ${cunits}" append  ${output}
print "Elastic Constant C55all = ${C55all} ${cunits}" append  output4.txt
Elastic Constant C55all = 149.754919679345 GPa
print "Elastic Constant C66all = ${C66all} ${cunits}" append  ${output}
print "Elastic Constant C66all = ${C66all} ${cunits}" append  output4.txt
Elastic Constant C66all = 149.729641500985 GPa

print "Elastic Constant C14all = ${C14all} ${cunits}" append  ${output}
print "Elastic Constant C14all = ${C14all} ${cunits}" append  output4.txt
Elastic Constant C14all = -0.00048116243066559 GPa
print "Elastic Constant C15all = ${C15all} ${cunits}" append  ${output}
print "Elastic Constant C15all = ${C15all} ${cunits}" append  output4.txt
Elastic Constant C15all = -0.0135632345415771 GPa
print "Elastic Constant C16all = ${C16all} ${cunits}" append  ${output}
print "Elastic Constant C16all = ${C16all} ${cunits}" append  output4.txt
Elastic Constant C16all = -0.0297901563704997 GPa

print "Elastic Constant C24all = ${C24all} ${cunits}" append  ${output}
print "Elastic Constant C24all = ${C24all} ${cunits}" append  output4.txt
Elastic Constant C24all = 0.0189782796206352 GPa
print "Elastic Constant C25all = ${C25all} ${cunits}" append  ${output}
print "Elastic Constant C25all = ${C25all} ${cunits}" append  output4.txt
Elastic Constant C25all = 0.0252706308881456 GPa
print "Elastic Constant C26all = ${C26all} ${cunits}" append  ${output}
print "Elastic Constant C26all = ${C26all} ${cunits}" append  output4.txt
Elastic Constant C26all = -0.0312793187067456 GPa

print "Elastic Constant C34all = ${C34all} ${cunits}" append  ${output}
print "Elastic Constant C34all = ${C34all} ${cunits}" append  output4.txt
Elastic Constant C34all = -0.0265572673729714 GPa
print "Elastic Constant C35all = ${C35all} ${cunits}" append  ${output}
print "Elastic Constant C35all = ${C35all} ${cunits}" append  output4.txt
Elastic Constant C35all = -0.00641864469890653 GPa
print "Elastic Constant C36all = ${C36all} ${cunits}" append  ${output}
print "Elastic Constant C36all = ${C36all} ${cunits}" append  output4.txt
Elastic Constant C36all = 0.00724560137745763 GPa

print "Elastic Constant C45all = ${C45all} ${cunits}" append  ${output}
print "Elastic Constant C45all = ${C45all} ${cunits}" append  output4.txt
Elastic Constant C45all = 0.0172829722824286 GPa
print "Elastic Constant C46all = ${C46all} ${cunits}" append  ${output}
print "Elastic Constant C46all = ${C46all} ${cunits}" append  output4.txt
Elastic Constant C46all = -0.00725551038254224 GPa
print "Elastic Constant C56all = ${C56all} ${cunits}" append  ${output}
print "Elastic Constant C56all = ${C56all} ${cunits}" append  output4.txt
Elastic Constant C56all = 0.00574999577755975 GPa

print "=========================================" append ${output}
print "=========================================" append output4.txt
=========================================
print "Average properties for a cubic crystal" append ${output}
print "Average properties for a cubic crystal" append output4.txt
Average properties for a cubic crystal
print "=========================================" append ${output}
print "=========================================" append output4.txt
=========================================

print "Bulk Modulus = ${bulkmodulus} ${cunits}" append ${output}
print "Bulk Modulus = ${bulkmodulus} ${cunits}" append output4.txt
Bulk Modulus = 296.928841975793 GPa
print "Shear Modulus 1 = ${shearmodulus1} ${cunits}" append ${output}
print "Shear Modulus 1 = ${shearmodulus1} ${cunits}" append output4.txt
Shear Modulus 1 = 149.729641500985 GPa
print "Shear Modulus 2 = ${shearmodulus2} ${cunits}" append ${output}
print "Shear Modulus 2 = ${shearmodulus2} ${cunits}" append output4.txt
Shear Modulus 2 = 148.051371411774 GPa
print "Poisson Ratio = ${poissonratio}" append ${output}
print "Poisson Ratio = ${poissonratio}" append output4.txt
Poisson Ratio = 0.286225495155228

print "${prop} ${shearmodulus1} ${shearmodulus2} ${poissonratio}" append ${modulus}
print "${prop} ${shearmodulus1} ${shearmodulus2} ${poissonratio}" append modulus4.txt
0.90 149.729641500985 148.051371411774 0.286225495155228
Total wall time: 0:00:02
